1.0 1.0
2.0 0.736046
3.0 0.6328325
4.0 0.3964848
5.0 0.260418
6.0 0.1959522
7.0 0.1807733
8.0 0.1864329
9.0 0.1828349
10.0 0.166401
11.0 0.1476645
12.0 0.1316828
13.0 0.1204217
14.0 0.1103303
15.0 0.1014347
16.0 0.09347393
17.0 0.08810058
18.0 0.08509877
19.0 0.08177261
20.0 0.07786057
21.0 0.0712526
22.0 0.06277434
23.0 0.05484876
24.0 0.04801515
25.0 0.0422324
26.0 0.03746044
27.0 0.03338497
28.0 0.02993053
29.0 0.0268753
30.0 0.02411705
31.0 0.02147514
32.0 0.01904052
33.0 0.01672718
34.0 0.01465441
35.0 0.01275936
36.0 0.01111499
37.0 0.009680884
38.0 0.00842237
39.0 0.007303559
40.0 0.006365866
41.0 0.005533157
42.0 0.004814013
43.0 0.004184415
44.0 0.003632749
45.0 0.00316238
46.0 0.002745387
47.0 0.002392515
48.0 0.002092191
49.0 0.001848163
50.0 0.001595054
51.0 0.00138684
52.0 0.001210416
53.0 0.001068471
54.0 9.467906E-4
55.0 8.399955E-4
56.0 7.334113E-4
57.0 6.54615E-4
58.0 5.820763E-4
59.0 5.415143E-4
60.0 5.041952E-4
61.0 4.861539E-4
62.0 4.263111E-4
63.0 4.208062E-4
64.0 3.541286E-4
65.0 4.6961E-4
66.0 3.324065E-4
67.0 3.268811E-4
68.0 2.681677E-4
69.0 2.763907E-4
70.0 4.115206E-4
71.0 2.640257E-4
72.0 2.576788E-4
73.0 2.787508E-4
74.0 2.221203E-4
75.0 2.517884E-4
76.0 2.272468E-4
77.0 1.939292E-4
78.0 1.933264E-4
79.0 2.086673E-4
80.0 0.003158636
81.0 6.397953E-4
82.0 4.130874E-4
83.0 3.291295E-4
84.0 3.001271E-4
85.0 2.77412E-4
86.0 2.601011E-4
87.0 2.672342E-4
88.0 2.461568E-4
89.0 2.046478E-4
90.0 2.220701E-4
91.0 2.354004E-4
92.0 1.99501E-4
93.0 1.935747E-4
94.0 1.861632E-4
95.0 1.752792E-4
96.0 1.996126E-4
97.0 1.794287E-4
98.0 1.98397E-4
99.0 2.586571E-4
100.0 2.365911E-4
