1.0 1.0
2.0 0.04716819
3.0 0.05692994
4.0 0.2100138
5.0 0.1650484
6.0 0.1665868
7.0 0.300855
8.0 0.2558116
9.0 0.2198221
10.0 0.2390911
11.0 0.240549
12.0 0.2131938
13.0 0.1902749
14.0 0.1727694
15.0 0.153657
16.0 0.132811
17.0 0.1134776
18.0 0.09680071
19.0 0.08279958
20.0 0.0711194
21.0 0.06154347
22.0 0.05345918
23.0 0.04674562
24.0 0.04078566
25.0 0.03584803
26.0 0.03091776
27.0 0.02711072
28.0 0.02347721
29.0 0.0204931
30.0 0.01767533
31.0 0.01565419
32.0 0.0135119
33.0 0.01182766
34.0 0.01015152
35.0 0.008974218
36.0 0.007790915
37.0 0.006803162
38.0 0.0058257
39.0 0.005214199
40.0 0.004443364
41.0 0.003988448
42.0 0.003444541
43.0 0.003088729
44.0 0.002681561
45.0 0.002415084
46.0 0.002130904
47.0 0.001938674
48.0 0.001853557
49.0 0.001559681
50.0 0.00139993
51.0 0.00127859
52.0 0.001107972
53.0 0.001107926
54.0 0.001039764
55.0 9.67992E-4
56.0 8.935996E-4
57.0 8.90292E-4
58.0 0.001126736
59.0 8.626403E-4
60.0 8.07059E-4
61.0 9.877208E-4
62.0 9.446713E-4
63.0 7.190149E-4
64.0 7.825326E-4
65.0 7.167273E-4
66.0 9.697263E-4
67.0 6.55745E-4
68.0 6.48711E-4
69.0 8.094002E-4
70.0 6.894589E-4
71.0 6.584214E-4
72.0 7.847641E-4
73.0 6.181956E-4
74.0 8.652137E-4
75.0 6.23455E-4
76.0 5.911478E-4
77.0 5.940324E-4
78.0 9.06343E-4
79.0 0.001071712
80.0 6.474924E-4
81.0 6.344367E-4
82.0 5.927345E-4
83.0 6.492993E-4
84.0 5.153411E-4
85.0 5.781491E-4
86.0 6.455221E-4
87.0 5.997544E-4
88.0 4.369023E-4
89.0 6.139205E-4
90.0 7.835286E-4
91.0 5.617723E-4
92.0 4.496149E-4
93.0 6.121297E-4
94.0 6.440629E-4
95.0 7.048168E-4
96.0 4.554178E-4
97.0 7.058541E-4
98.0 0.001100761
99.0 7.596076E-4
100.0 4.77366E-4
