1.0 1.0
2.0 0.410505
3.0 0.5298053
4.0 0.27777
5.0 0.3551155
6.0 0.3309182
7.0 0.2408634
8.0 0.1934892
9.0 0.1709746
10.0 0.1633004
11.0 0.1578604
12.0 0.15134
13.0 0.1415366
14.0 0.1302698
15.0 0.1215479
16.0 0.1157539
17.0 0.1091775
18.0 0.1009059
19.0 0.09093942
20.0 0.07992739
21.0 0.06919718
22.0 0.059822
23.0 0.0521008
24.0 0.04538369
25.0 0.03950138
26.0 0.03445537
27.0 0.02987348
28.0 0.02582092
29.0 0.02230854
30.0 0.01936395
31.0 0.01679139
32.0 0.01464828
33.0 0.01271955
34.0 0.01101133
35.0 0.009479733
36.0 0.008199685
37.0 0.007128176
38.0 0.006143203
39.0 0.005289743
40.0 0.004595202
41.0 0.003960865
42.0 0.003415495
43.0 0.002954984
44.0 0.002554339
45.0 0.002214118
46.0 0.001918999
47.0 0.001678385
48.0 0.001469029
49.0 0.001321541
50.0 0.001127035
51.0 9.878459E-4
52.0 8.814805E-4
53.0 7.874433E-4
54.0 7.110002E-4
55.0 6.653673E-4
56.0 5.801592E-4
57.0 5.557062E-4
58.0 4.971148E-4
59.0 4.776301E-4
60.0 4.786447E-4
61.0 4.545626E-4
62.0 4.205023E-4
63.0 4.15861E-4
64.0 3.570339E-4
65.0 4.043519E-4
66.0 3.558061E-4
67.0 3.419419E-4
68.0 2.843739E-4
69.0 3.122209E-4
70.0 3.662497E-4
71.0 2.944992E-4
72.0 2.972712E-4
73.0 3.329332E-4
74.0 2.556216E-4
75.0 3.353353E-4
76.0 2.759094E-4
77.0 2.538882E-4
78.0 2.526026E-4
79.0 2.518344E-4
80.0 5.763114E-4
81.0 3.398586E-4
82.0 3.120679E-4
83.0 2.547884E-4
84.0 2.587255E-4
85.0 2.50664E-4
86.0 2.344933E-4
87.0 2.881507E-4
88.0 2.387474E-4
89.0 2.005439E-4
90.0 2.406831E-4
91.0 2.630346E-4
92.0 2.185465E-4
93.0 2.307032E-4
94.0 2.275161E-4
95.0 2.149143E-4
96.0 2.648792E-4
97.0 2.426063E-4
98.0 2.501278E-4
99.0 3.51453E-4
100.0 2.997357E-4
