1.0 1.0
2.0 0.4029065
3.0 0.2681517
4.0 0.3735214
5.0 0.3097962
6.0 0.2181517
7.0 0.1850161
8.0 0.2059026
9.0 0.2069657
10.0 0.1767017
11.0 0.1389693
12.0 0.1156257
13.0 0.1120871
14.0 0.1125905
15.0 0.1059624
16.0 0.09334706
17.0 0.0789976
18.0 0.06677762
19.0 0.05936238
20.0 0.05443943
21.0 0.04976176
22.0 0.04489729
23.0 0.04013502
24.0 0.03570496
25.0 0.03175991
26.0 0.02831922
27.0 0.02511124
28.0 0.02227964
29.0 0.01971355
30.0 0.01740146
31.0 0.01529777
32.0 0.01343436
33.0 0.01170617
34.0 0.01017761
35.0 0.008807417
36.0 0.007624391
37.0 0.006625575
38.0 0.00567981
39.0 0.00486018
40.0 0.00419536
41.0 0.003612987
42.0 0.003105224
43.0 0.002679966
44.0 0.002325283
45.0 0.0020138
46.0 0.001751099
47.0 0.001522043
48.0 0.001334742
49.0 0.001218872
50.0 0.001021897
51.0 8.887183E-4
52.0 7.838281E-4
53.0 6.971957E-4
54.0 6.285817E-4
55.0 5.636807E-4
56.0 5.280813E-4
57.0 4.928906E-4
58.0 4.505428E-4
59.0 4.192954E-4
60.0 4.257348E-4
61.0 4.072365E-4
62.0 3.810411E-4
63.0 3.801285E-4
64.0 3.10112E-4
65.0 3.448068E-4
66.0 3.095871E-4
67.0 3.105333E-4
68.0 2.588845E-4
69.0 2.819E-4
70.0 3.226598E-4
71.0 2.50873E-4
72.0 2.650407E-4
73.0 2.999199E-4
74.0 2.221573E-4
75.0 2.850675E-4
76.0 2.276618E-4
77.0 1.979482E-4
78.0 2.066258E-4
79.0 1.957342E-4
80.0 4.057355E-4
81.0 2.993581E-4
82.0 2.825405E-4
83.0 2.17277E-4
84.0 2.325018E-4
85.0 2.118234E-4
86.0 1.886046E-4
87.0 2.358434E-4
88.0 1.967387E-4
89.0 1.511283E-4
90.0 1.927495E-4
91.0 2.151498E-4
92.0 1.586982E-4
93.0 1.997796E-4
94.0 1.94978E-4
95.0 1.816479E-4
96.0 2.30302E-4
97.0 1.957257E-4
98.0 2.045394E-4
99.0 3.199587E-4
100.0 2.674451E-4
