1.0 1.0
2.0 0.407062
3.0 0.274355
4.0 0.391145
5.0 0.3063001
6.0 0.2040622
7.0 0.1775958
8.0 0.2185881
9.0 0.2125076
10.0 0.1619612
11.0 0.1145363
12.0 0.0927893
13.0 0.09070417
14.0 0.08841677
15.0 0.07865786
16.0 0.06526772
17.0 0.05204329
18.0 0.04188701
19.0 0.03513926
20.0 0.03063233
21.0 0.02701675
22.0 0.02398185
23.0 0.02110362
24.0 0.01864456
25.0 0.01643346
26.0 0.01466264
27.0 0.01299741
28.0 0.01160154
29.0 0.0102456
30.0 0.009079116
31.0 0.007931477
32.0 0.006978559
33.0 0.006032377
34.0 0.005247462
35.0 0.004514307
36.0 0.003919836
37.0 0.003380657
38.0 0.002911163
39.0 0.002482297
40.0 0.002157563
41.0 0.001847538
42.0 0.001601232
43.0 0.001374325
44.0 0.001203326
45.0 0.001038271
46.0 9.150592E-4
47.0 7.963972E-4
48.0 7.122573E-4
49.0 6.403216E-4
50.0 5.467452E-4
51.0 4.812552E-4
52.0 4.315293E-4
53.0 3.904945E-4
54.0 3.465398E-4
55.0 3.265856E-4
56.0 2.95723E-4
57.0 2.850158E-4
58.0 2.532931E-4
59.0 2.6035E-4
60.0 2.524417E-4
61.0 2.608964E-4
62.0 2.089983E-4
63.0 2.459577E-4
64.0 1.842148E-4
65.0 2.473487E-4
66.0 1.96059E-4
67.0 2.063612E-4
68.0 1.515065E-4
69.0 1.873832E-4
70.0 2.161662E-4
71.0 1.77202E-4
72.0 1.667551E-4
73.0 1.867848E-4
74.0 1.34058E-4
75.0 2.025141E-4
76.0 1.54981E-4
77.0 1.442124E-4
78.0 1.393747E-4
79.0 1.454517E-4
80.0 3.398664E-4
81.0 2.142048E-4
82.0 1.940401E-4
83.0 1.493643E-4
84.0 1.568849E-4
85.0 1.47533E-4
86.0 1.224097E-4
87.0 1.677473E-4
88.0 1.371605E-4
89.0 1.053922E-4
90.0 1.312331E-4
91.0 1.435064E-4
92.0 1.086995E-4
93.0 1.25411E-4
94.0 1.245483E-4
95.0 1.157164E-4
96.0 1.598861E-4
97.0 1.260901E-4
98.0 1.390347E-4
99.0 1.979064E-4
100.0 1.862664E-4
